15
	Energy:      23.6349336
C         -3.87988        0.92893       -0.03195
C         -2.70653        1.67093       -0.21511
C         -1.46565        1.02230       -0.29390
C         -1.42944       -0.37815       -0.18496
C         -2.60214       -1.11447       -0.00355
C         -3.82747       -0.45952        0.07242
H         -4.74190       -1.03131        0.21184
H         -4.84037        1.43661        0.02761
H         -2.81542        2.74564       -0.29342
H         -0.47880       -0.90755       -0.24330
H         -2.55523       -2.19790        0.07656
C         -0.15554        1.71545       -0.49469
O          0.89611        1.10006       -0.58100
O         -0.18943        3.06045       -0.57681
H         -1.05103        3.49454       -0.48676

