8
	Energy:      -2.4009294
C         -3.78824        1.77894       -0.00502
C         -2.27829        1.79923       -0.01381
H         -4.18311        2.48830       -0.73883
H         -4.16768        2.08221        0.97561
H         -4.16799        0.78043       -0.23811
F         -1.85565        3.05702        0.28032
H         -1.88395        1.52898       -0.99707
H         -1.86834        1.11826        0.73691

